MODEL 1
REMARK VINA RESULT:      -2.8      0.000      0.000
REMARK SMILES CC(=O)C(=O)[O-]
REMARK SMILES IDX 3 1 1 2 2 3 4 4 5 5 6 6
REMARK H PARENT
ROOT
ATOM      1  O   UNL     1     -13.801 -17.230  38.277  1.00  0.00    -0.293 OA
ATOM      2  C   UNL     1     -12.315 -17.089  36.382  1.00  0.00     0.095 C 
ATOM      3  C   UNL     1     -13.219 -17.783  37.354  1.00  0.00     0.175 C 
ENDROOT
BRANCH   3   4
ATOM      4  C   UNL     1     -13.476 -19.258  37.249  1.00  0.00     0.107 C 
ATOM      5  O   UNL     1     -13.536 -19.727  36.075  1.00  0.00    -0.542 OA
ATOM      6  O   UNL     1     -13.604 -19.867  38.350  1.00  0.00    -0.542 OA
ENDBRANCH   3   4
TORSDOF 1
ENDMDL
MODEL 2
REMARK VINA RESULT:      -2.7      0.902      2.250
REMARK SMILES CC(=O)C(=O)[O-]
REMARK SMILES IDX 3 1 1 2 2 3 4 4 5 5 6 6
REMARK H PARENT
ROOT
ATOM      1  O   UNL     1     -13.456 -20.049  35.710  1.00  0.00    -0.293 OA
ATOM      2  C   UNL     1     -13.385 -17.671  35.312  1.00  0.00     0.095 C 
ATOM      3  C   UNL     1     -13.495 -18.908  36.149  1.00  0.00     0.175 C 
ENDROOT
BRANCH   3   4
ATOM      4  C   UNL     1     -13.667 -18.818  37.637  1.00  0.00     0.107 C 
ATOM      5  O   UNL     1     -13.499 -19.895  38.280  1.00  0.00    -0.542 OA
ATOM      6  O   UNL     1     -13.961 -17.671  38.082  1.00  0.00    -0.542 OA
ENDBRANCH   3   4
TORSDOF 1
ENDMDL
MODEL 3
REMARK VINA RESULT:      -2.5     17.770     18.310
REMARK SMILES CC(=O)C(=O)[O-]
REMARK SMILES IDX 3 1 1 2 2 3 4 4 5 5 6 6
REMARK H PARENT
ROOT
ATOM      1  O   UNL     1       1.575 -23.616  29.653  1.00  0.00    -0.293 OA
ATOM      2  C   UNL     1       1.044 -23.482  27.303  1.00  0.00     0.095 C 
ATOM      3  C   UNL     1       1.686 -23.037  28.581  1.00  0.00     0.175 C 
ENDROOT
BRANCH   3   4
ATOM      4  C   UNL     1       2.538 -21.802  28.625  1.00  0.00     0.107 C 
ATOM      5  O   UNL     1       1.998 -20.741  28.196  1.00  0.00    -0.542 OA
ATOM      6  O   UNL     1       3.705 -21.963  29.087  1.00  0.00    -0.542 OA
ENDBRANCH   3   4
TORSDOF 1
ENDMDL
MODEL 4
REMARK VINA RESULT:      -2.5      1.540      2.054
REMARK SMILES CC(=O)C(=O)[O-]
REMARK SMILES IDX 3 1 1 2 2 3 4 4 5 5 6 6
REMARK H PARENT
ROOT
ATOM      1  O   UNL     1     -12.193 -17.134  36.223  1.00  0.00    -0.293 OA
ATOM      2  C   UNL     1     -13.233 -18.960  35.039  1.00  0.00     0.095 C 
ATOM      3  C   UNL     1     -12.911 -18.124  36.239  1.00  0.00     0.175 C 
ENDROOT
BRANCH   3   4
ATOM      4  C   UNL     1     -13.472 -18.466  37.588  1.00  0.00     0.107 C 
ATOM      5  O   UNL     1     -13.933 -17.496  38.258  1.00  0.00    -0.542 OA
ATOM      6  O   UNL     1     -13.420 -19.690  37.904  1.00  0.00    -0.542 OA
ENDBRANCH   3   4
TORSDOF 1
ENDMDL
MODEL 5
REMARK VINA RESULT:      -2.5     18.632     19.161
REMARK SMILES CC(=O)C(=O)[O-]
REMARK SMILES IDX 3 1 1 2 2 3 4 4 5 5 6 6
REMARK H PARENT
ROOT
ATOM      1  O   UNL     1       0.956 -23.880  27.204  1.00  0.00    -0.293 OA
ATOM      2  C   UNL     1       3.129 -24.167  26.197  1.00  0.00     0.095 C 
ATOM      3  C   UNL     1       2.174 -23.890  27.317  1.00  0.00     0.175 C 
ENDROOT
BRANCH   3   4
ATOM      4  C   UNL     1       2.675 -23.595  28.701  1.00  0.00     0.107 C 
ATOM      5  O   UNL     1       3.321 -22.515  28.838  1.00  0.00    -0.542 OA
ATOM      6  O   UNL     1       2.393 -24.463  29.577  1.00  0.00    -0.542 OA
ENDBRANCH   3   4
TORSDOF 1
ENDMDL
MODEL 6
REMARK VINA RESULT:      -2.4      1.668      2.334
REMARK SMILES CC(=O)C(=O)[O-]
REMARK SMILES IDX 3 1 1 2 2 3 4 4 5 5 6 6
REMARK H PARENT
ROOT
ATOM      1  O   UNL     1     -15.330 -17.448  37.481  1.00  0.00    -0.293 OA
ATOM      2  C   UNL     1     -15.503 -19.295  39.023  1.00  0.00     0.095 C 
ATOM      3  C   UNL     1     -14.872 -18.491  37.929  1.00  0.00     0.175 C 
ENDROOT
BRANCH   3   4
ATOM      4  C   UNL     1     -13.587 -18.933  37.291  1.00  0.00     0.107 C 
ATOM      5  O   UNL     1     -13.689 -19.835  36.410  1.00  0.00    -0.542 OA
ATOM      6  O   UNL     1     -12.545 -18.351  37.708  1.00  0.00    -0.542 OA
ENDBRANCH   3   4
TORSDOF 1
ENDMDL
MODEL 7
REMARK VINA RESULT:      -2.4      0.991      2.038
REMARK SMILES CC(=O)C(=O)[O-]
REMARK SMILES IDX 3 1 1 2 2 3 4 4 5 5 6 6
REMARK H PARENT
ROOT
ATOM      1  O   UNL     1     -12.998 -18.236  35.235  1.00  0.00    -0.293 OA
ATOM      2  C   UNL     1     -11.638 -16.523  36.255  1.00  0.00     0.095 C 
ATOM      3  C   UNL     1     -12.636 -17.640  36.241  1.00  0.00     0.175 C 
ENDROOT
BRANCH   3   4
ATOM      4  C   UNL     1     -13.279 -18.113  37.511  1.00  0.00     0.107 C 
ATOM      5  O   UNL     1     -13.177 -19.351  37.756  1.00  0.00    -0.542 OA
ATOM      6  O   UNL     1     -13.853 -17.218  38.197  1.00  0.00    -0.542 OA
ENDBRANCH   3   4
TORSDOF 1
ENDMDL
MODEL 8
REMARK VINA RESULT:      -2.2     17.543     18.256
REMARK SMILES CC(=O)C(=O)[O-]
REMARK SMILES IDX 3 1 1 2 2 3 4 4 5 5 6 6
REMARK H PARENT
ROOT
ATOM      1  O   UNL     1       2.967 -21.863  27.228  1.00  0.00    -0.293 OA
ATOM      2  C   UNL     1       2.204 -20.762  29.235  1.00  0.00     0.095 C 
ATOM      3  C   UNL     1       2.336 -21.904  28.276  1.00  0.00     0.175 C 
ENDROOT
BRANCH   3   4
ATOM      4  C   UNL     1       1.673 -23.222  28.553  1.00  0.00     0.107 C 
ATOM      5  O   UNL     1       1.549 -23.533  29.773  1.00  0.00    -0.542 OA
ATOM      6  O   UNL     1       1.313 -23.875  27.531  1.00  0.00    -0.542 OA
ENDBRANCH   3   4
TORSDOF 1
ENDMDL
MODEL 9
REMARK VINA RESULT:      -2.1      1.701      2.216
REMARK SMILES CC(=O)C(=O)[O-]
REMARK SMILES IDX 3 1 1 2 2 3 4 4 5 5 6 6
REMARK H PARENT
ROOT
ATOM      1  O   UNL     1     -15.017 -17.311  37.527  1.00  0.00    -0.293 OA
ATOM      2  C   UNL     1     -15.726 -18.293  35.441  1.00  0.00     0.095 C 
ATOM      3  C   UNL     1     -14.837 -18.128  36.635  1.00  0.00     0.175 C 
ENDROOT
BRANCH   3   4
ATOM      4  C   UNL     1     -13.622 -18.990  36.815  1.00  0.00     0.107 C 
ATOM      5  O   UNL     1     -12.832 -18.648  37.743  1.00  0.00    -0.542 OA
ATOM      6  O   UNL     1     -13.524 -19.965  36.015  1.00  0.00    -0.542 OA
ENDBRANCH   3   4
TORSDOF 1
ENDMDL
