MODEL 1
REMARK VINA RESULT:      -3.9      0.000      0.000
REMARK SMILES CC(=O)C(=O)[O-]
REMARK SMILES IDX 3 1 1 2 2 3 4 4 5 5 6 6
REMARK H PARENT
ROOT
ATOM      1  O   UNL     1     -26.272  11.860  -1.480  1.00  0.00    -0.293 OA
ATOM      2  C   UNL     1     -28.161  13.326  -1.160  1.00  0.00     0.095 C 
ATOM      3  C   UNL     1     -26.769  12.972  -1.585  1.00  0.00     0.175 C 
ENDROOT
BRANCH   3   4
ATOM      4  C   UNL     1     -25.864  14.005  -2.192  1.00  0.00     0.107 C 
ATOM      5  O   UNL     1     -26.148  15.211  -1.932  1.00  0.00    -0.542 OA
ATOM      6  O   UNL     1     -24.917  13.551  -2.897  1.00  0.00    -0.542 OA
ENDBRANCH   3   4
TORSDOF 1
ENDMDL
MODEL 2
REMARK VINA RESULT:      -3.9      0.754      1.990
REMARK SMILES CC(=O)C(=O)[O-]
REMARK SMILES IDX 3 1 1 2 2 3 4 4 5 5 6 6
REMARK H PARENT
ROOT
ATOM      1  O   UNL     1     -26.340  15.215  -1.706  1.00  0.00    -0.293 OA
ATOM      2  C   UNL     1     -27.891  13.577  -0.850  1.00  0.00     0.095 C 
ATOM      3  C   UNL     1     -26.724  14.055  -1.658  1.00  0.00     0.175 C 
ENDROOT
BRANCH   3   4
ATOM      4  C   UNL     1     -25.921  13.098  -2.491  1.00  0.00     0.107 C 
ATOM      5  O   UNL     1     -25.314  13.601  -3.481  1.00  0.00    -0.542 OA
ATOM      6  O   UNL     1     -25.943  11.893  -2.107  1.00  0.00    -0.542 OA
ENDBRANCH   3   4
TORSDOF 1
ENDMDL
MODEL 3
REMARK VINA RESULT:      -3.7     11.462     12.418
REMARK SMILES CC(=O)C(=O)[O-]
REMARK SMILES IDX 3 1 1 2 2 3 4 4 5 5 6 6
REMARK H PARENT
ROOT
ATOM      1  O   UNL     1     -33.756  21.219   3.823  1.00  0.00    -0.293 OA
ATOM      2  C   UNL     1     -32.299  19.393   4.429  1.00  0.00     0.095 C 
ATOM      3  C   UNL     1     -32.942  20.735   4.599  1.00  0.00     0.175 C 
ENDROOT
BRANCH   3   4
ATOM      4  C   UNL     1     -32.614  21.602   5.779  1.00  0.00     0.107 C 
ATOM      5  O   UNL     1     -31.918  22.630   5.535  1.00  0.00    -0.542 OA
ATOM      6  O   UNL     1     -33.072  21.204   6.890  1.00  0.00    -0.542 OA
ENDBRANCH   3   4
TORSDOF 1
ENDMDL
MODEL 4
REMARK VINA RESULT:      -3.7     11.327     12.033
REMARK SMILES CC(=O)C(=O)[O-]
REMARK SMILES IDX 3 1 1 2 2 3 4 4 5 5 6 6
REMARK H PARENT
ROOT
ATOM      1  O   UNL     1     -33.746  19.854   6.544  1.00  0.00    -0.293 OA
ATOM      2  C   UNL     1     -32.143  18.669   5.185  1.00  0.00     0.095 C 
ATOM      3  C   UNL     1     -32.990  19.839   5.583  1.00  0.00     0.175 C 
ENDROOT
BRANCH   3   4
ATOM      4  C   UNL     1     -32.959  21.115   4.794  1.00  0.00     0.107 C 
ATOM      5  O   UNL     1     -32.313  22.072   5.313  1.00  0.00    -0.542 OA
ATOM      6  O   UNL     1     -33.584  21.090   3.695  1.00  0.00    -0.542 OA
ENDBRANCH   3   4
TORSDOF 1
ENDMDL
MODEL 5
REMARK VINA RESULT:      -3.7     11.026     12.125
REMARK SMILES CC(=O)C(=O)[O-]
REMARK SMILES IDX 3 1 1 2 2 3 4 4 5 5 6 6
REMARK H PARENT
ROOT
ATOM      1  O   UNL     1     -32.272  22.324   5.710  1.00  0.00    -0.293 OA
ATOM      2  C   UNL     1     -32.537  20.266   6.940  1.00  0.00     0.095 C 
ATOM      3  C   UNL     1     -32.540  21.130   5.718  1.00  0.00     0.175 C 
ENDROOT
BRANCH   3   4
ATOM      4  C   UNL     1     -32.888  20.561   4.373  1.00  0.00     0.107 C 
ATOM      5  O   UNL     1     -33.747  21.206   3.704  1.00  0.00    -0.542 OA
ATOM      6  O   UNL     1     -32.280  19.497   4.060  1.00  0.00    -0.542 OA
ENDBRANCH   3   4
TORSDOF 1
ENDMDL
MODEL 6
REMARK VINA RESULT:      -3.6     13.891     14.955
REMARK SMILES CC(=O)C(=O)[O-]
REMARK SMILES IDX 3 1 1 2 2 3 4 4 5 5 6 6
REMARK H PARENT
ROOT
ATOM      1  O   UNL     1     -33.534  24.623   6.789  1.00  0.00    -0.293 OA
ATOM      2  C   UNL     1     -31.999  24.644   8.650  1.00  0.00     0.095 C 
ATOM      3  C   UNL     1     -32.645  24.074   7.425  1.00  0.00     0.175 C 
ENDROOT
BRANCH   3   4
ATOM      4  C   UNL     1     -32.222  22.740   6.883  1.00  0.00     0.107 C 
ATOM      5  O   UNL     1     -31.269  22.172   7.491  1.00  0.00    -0.542 OA
ATOM      6  O   UNL     1     -32.868  22.333   5.874  1.00  0.00    -0.542 OA
ENDBRANCH   3   4
TORSDOF 1
ENDMDL
MODEL 7
REMARK VINA RESULT:      -3.5      1.323      2.251
REMARK SMILES CC(=O)C(=O)[O-]
REMARK SMILES IDX 3 1 1 2 2 3 4 4 5 5 6 6
REMARK H PARENT
ROOT
ATOM      1  O   UNL     1     -24.825  13.327  -2.874  1.00  0.00    -0.293 OA
ATOM      2  C   UNL     1     -26.768  12.010  -3.429  1.00  0.00     0.095 C 
ATOM      3  C   UNL     1     -26.009  13.075  -2.700  1.00  0.00     0.175 C 
ENDROOT
BRANCH   3   4
ATOM      4  C   UNL     1     -26.684  13.932  -1.669  1.00  0.00     0.107 C 
ATOM      5  O   UNL     1     -27.446  13.328  -0.859  1.00  0.00    -0.542 OA
ATOM      6  O   UNL     1     -26.413  15.167  -1.726  1.00  0.00    -0.542 OA
ENDBRANCH   3   4
TORSDOF 1
ENDMDL
MODEL 8
REMARK VINA RESULT:      -3.5     17.334     18.456
REMARK SMILES CC(=O)C(=O)[O-]
REMARK SMILES IDX 3 1 1 2 2 3 4 4 5 5 6 6
REMARK H PARENT
ROOT
ATOM      1  O   UNL     1     -41.319  22.316   7.511  1.00  0.00    -0.293 OA
ATOM      2  C   UNL     1     -38.921  22.507   7.694  1.00  0.00     0.095 C 
ATOM      3  C   UNL     1     -40.215  21.794   7.447  1.00  0.00     0.175 C 
ENDROOT
BRANCH   3   4
ATOM      4  C   UNL     1     -40.234  20.336   7.093  1.00  0.00     0.107 C 
ATOM      5  O   UNL     1     -39.164  19.872   6.601  1.00  0.00    -0.542 OA
ATOM      6  O   UNL     1     -41.321  19.734   7.326  1.00  0.00    -0.542 OA
ENDBRANCH   3   4
TORSDOF 1
ENDMDL
MODEL 9
REMARK VINA RESULT:      -3.3     11.305     12.243
REMARK SMILES CC(=O)C(=O)[O-]
REMARK SMILES IDX 3 1 1 2 2 3 4 4 5 5 6 6
REMARK H PARENT
ROOT
ATOM      1  O   UNL     1     -31.274  17.932   6.444  1.00  0.00    -0.293 OA
ATOM      2  C   UNL     1     -32.646  19.617   5.395  1.00  0.00     0.095 C 
ATOM      3  C   UNL     1     -31.871  18.997   6.517  1.00  0.00     0.175 C 
ENDROOT
BRANCH   3   4
ATOM      4  C   UNL     1     -31.779  19.672   7.854  1.00  0.00     0.107 C 
ATOM      5  O   UNL     1     -30.880  20.556   7.967  1.00  0.00    -0.542 OA
ATOM      6  O   UNL     1     -32.613  19.281   8.720  1.00  0.00    -0.542 OA
ENDBRANCH   3   4
TORSDOF 1
ENDMDL
